# vtk DataFile Version 4.0
vtk output
ASCII
DATASET POLYDATA
POINTS 6 float
124.337 477.348 57.9958 123.39 477.951 60.0236 122.726 478.789 62.1261 
121.906 479.671 64.1788 121.034 480.438 66.209 120.314 481.043 68.347 

POINT_DATA 6
FIELD FieldData 3
Flow%20direction 3 6 double
0.538168 -0.251858 -0.804327 0.261788 -0.281159 -0.923264 0.310844 -0.437334 -0.843869 
0.394748 -0.349931 -0.849543 0.380548 -0.297565 -0.875579 0.285128 -0.226777 -0.931276 

FLow%20direction%20uncertainty 1 6 double
1 1 1 1 1 1 
Vessel%20velocity 1 6 double
0 0 0 0 0 0 
