# vtk DataFile Version 3.0
vtk output
ASCII
DATASET POLYDATA
POINTS 41 float
125.079 476.57 56.2945 124.972 476.719 56.5933 124.86 476.873 56.9005 
124.745 477.024 57.2018 124.616 477.164 57.5011 124.464 477.28 57.7921 
124.293 477.368 58.0603 124.119 477.442 58.3104 123.963 477.52 58.5674 
123.833 477.604 58.8441 123.72 477.687 59.1228 123.594 477.776 59.4331 
123.474 477.868 59.7483 123.373 477.97 60.0845 123.279 478.076 60.4184 
123.172 478.205 60.7732 123.063 478.344 61.1178 122.952 478.486 61.4625 
122.84 478.632 61.804 122.726 478.789 62.1261 122.611 478.95 62.4412 
122.504 479.093 62.7518 122.402 479.216 63.0521 122.284 479.335 63.3559 
122.148 479.454 63.6591 122.014 479.574 63.9478 121.879 479.695 64.2386 
121.735 479.825 64.5572 121.595 479.968 64.9005 121.461 480.1 65.2277 
121.332 480.205 65.521 121.21 480.301 65.802 121.086 480.398 66.09 
120.957 480.502 66.3907 120.84 480.617 66.6951 120.745 480.723 66.9958 
120.657 480.807 67.3171 120.548 480.886 67.6733 120.425 480.965 68.0215 
120.314 481.043 68.347 120.226 481.117 68.6723 
POINT_DATA 41
FIELD FieldData 3
Flow%20direction 3 41 double
0.305271 -0.422258 -0.853527 0.306385 -0.424506 -0.852011 0.313944 -0.428637 -0.847177 
0.33908 -0.414366 -0.844586 0.395844 -0.366288 -0.842105 0.480739 -0.29491 -0.825783 
0.551816 -0.241212 -0.798321 0.541886 -0.238825 -0.805805 0.455889 -0.259093 -0.851491 
0.375371 -0.267953 -0.887298 0.356256 -0.262305 -0.896815 0.366615 -0.254551 -0.894873 
0.30762 -0.274023 -0.911198 0.256987 -0.281428 -0.92453 0.264012 -0.308571 -0.913828 
0.279105 -0.349066 -0.894569 0.284682 -0.364619 -0.886572 0.284313 -0.364707 -0.886654 
0.295088 -0.394123 -0.870396 0.310844 -0.437334 -0.843869 0.30504 -0.421477 -0.853995 
0.291345 -0.376028 -0.879614 0.3148 -0.349076 -0.882636 0.369423 -0.336789 -0.866083 
0.394742 -0.343954 -0.851983 0.391324 -0.358703 -0.847466 0.393853 -0.347829 -0.85082 
0.369855 -0.353882 -0.859054 0.345851 -0.3608 -0.866147 0.37008 -0.328244 -0.869078 
0.387158 -0.300642 -0.871621 0.37405 -0.299175 -0.877828 0.38066 -0.294302 -0.876633 
0.364432 -0.318065 -0.875228 0.31129 -0.338255 -0.888078 0.26045 -0.28281 -0.923138 
0.263002 -0.218491 -0.93973 0.310627 -0.203997 -0.928384 0.332285 -0.214518 -0.91846 
0.285128 -0.226777 -0.931276 0.232695 -0.199256 -0.951919 
FLow%20direction%20uncertainty 1 41 double
1 1 1 1 1 1 1 1 1 
1 1 1 1 1 1 1 1 1 
1 1 1 1 1 1 1 1 1 
1 1 1 1 1 1 1 1 1 
1 1 1 1 1 
Vessel%20velocity 1 41 double
0.396596 0.396596 0.396596 0.396596 0.396596 0.396596 0.396596 0.396596 0.396596 
0.396596 0.396596 0.396596 0.396596 0.396596 0.396596 0.396596 0.396596 0.396596 
0.396596 0.396596 0.396596 0.396596 0.396596 0.396596 0.396596 0.396596 0.396596 
0.396596 0.396596 0.396596 0.396596 0.396596 0.396596 0.396596 0.396596 0.396596 
0.396596 0.396596 0.396596 0.396596 0.396596 
