# vtk DataFile Version 4.0
vtk output
ASCII
DATASET POLYDATA
POINTS 60 float
133.526 467.989 36.5276 133.378 468.192 36.8605 133.254 468.357 37.1423 
133.121 468.518 37.4323 132.973 468.676 37.7283 132.821 468.826 38.0141 
132.657 468.996 38.3326 132.531 469.145 38.6129 132.4 469.31 38.9348 
132.278 469.45 39.2647 132.178 469.548 39.5651 132.058 469.653 39.8927 
131.917 469.762 40.2072 131.775 469.866 40.5048 131.639 469.981 40.8375 
131.526 470.099 41.1421 131.409 470.235 41.4515 131.276 470.399 41.7905 
131.161 470.539 42.0843 131.035 470.673 42.4169 130.911 470.785 42.7267 
130.773 470.896 43.0338 130.639 471.009 43.3109 130.489 471.156 43.6466 
130.37 471.272 43.9425 130.242 471.381 44.256 130.11 471.478 44.555 
129.988 471.566 44.8309 129.855 471.68 45.1755 129.732 471.805 45.5243 
129.618 471.929 45.844 129.51 472.046 46.1505 129.393 472.169 46.4917 
129.289 472.283 46.7891 129.181 472.407 47.0817 129.055 472.552 47.4214 
128.939 472.675 47.7574 128.842 472.771 48.0481 128.743 472.873 48.3404 
128.624 473 48.6595 128.499 473.118 48.9454 128.356 473.231 49.2336 
128.2 473.363 49.5474 128.081 473.489 49.8329 127.975 473.601 50.1352 
127.858 473.725 50.477 127.747 473.846 50.7895 127.622 473.983 51.1404 
127.512 474.112 51.432 127.37 474.287 51.7762 127.223 474.448 52.0972 
127.066 474.584 52.4094 126.914 474.711 52.7276 126.786 474.837 53.0414 
126.663 474.977 53.3641 126.535 475.115 53.6836 126.394 475.242 53.9976 
126.24 475.369 54.3013 126.077 475.535 54.6198 125.948 475.701 54.907 

POINT_DATA 60
FIELD FieldData 3
Flow%20direction 3 60 double
0.356351 -0.497901 -0.790638 0.353293 -0.478079 -0.804129 0.360985 -0.46428 -0.808785 
0.386203 -0.440289 -0.810551 0.417016 -0.422334 -0.804818 0.426009 -0.422705 -0.799898 
0.39118 -0.434439 -0.811321 0.351447 -0.436563 -0.828189 0.333402 -0.411475 -0.848252 
0.307621 -0.321157 -0.895672 0.307824 -0.282383 -0.908573 0.355874 -0.298113 -0.88571 
0.414018 -0.303447 -0.858201 0.394412 -0.296627 -0.869742 0.33521 -0.321496 -0.885593 
0.323804 -0.360876 -0.874597 0.330273 -0.399776 -0.855044 0.334915 -0.416736 -0.845082 
0.328989 -0.384077 -0.8627 0.340045 -0.328983 -0.880988 0.370831 -0.310047 -0.875417 
0.405633 -0.325 -0.854305 0.40446 -0.365078 -0.838528 0.357371 -0.361897 -0.860997 
0.349195 -0.321288 -0.880248 0.375841 -0.28948 -0.880309 0.394691 -0.280467 -0.874961 
0.370385 -0.285241 -0.883998 0.321977 -0.304943 -0.896293 0.313529 -0.334967 -0.888536 
0.315584 -0.348837 -0.882451 0.30851 -0.326383 -0.893474 0.308308 -0.325582 -0.893836 
0.317292 -0.354915 -0.87941 0.324073 -0.377835 -0.867305 0.317318 -0.354915 -0.8794 
0.302211 -0.304284 -0.903371 0.301793 -0.302229 -0.904201 0.312228 -0.329958 -0.890866 
0.345982 -0.362283 -0.865475 0.401475 -0.340761 -0.850118 0.430325 -0.330024 -0.840182 
0.388755 -0.378144 -0.840165 0.327302 -0.360765 -0.87334 0.305431 -0.313241 -0.899218 
0.312487 -0.338863 -0.887425 0.312684 -0.33995 -0.88694 0.319002 -0.360398 -0.876556 
0.333604 -0.405866 -0.850871 0.358697 -0.434246 -0.826297 0.401772 -0.389585 -0.828735 
0.424633 -0.343604 -0.837629 0.380272 -0.339894 -0.860154 0.335916 -0.359902 -0.87042 
0.329986 -0.383953 -0.862374 0.362327 -0.358509 -0.860343 0.407595 -0.338161 -0.848241 
0.430331 -0.374132 -0.821487 0.384686 -0.457771 -0.801537 0.351175 -0.463623 -0.813468 

FLow%20direction%20uncertainty 1 60 double
1 1 1 1 1 1 1 1 1 
1 1 1 1 1 1 1 1 1 
1 1 1 1 1 1 1 1 1 
1 1 1 1 1 1 1 1 1 
1 1 1 1 1 1 1 1 1 
1 1 1 1 1 1 1 1 1 
1 1 1 1 1 1 
Vessel%20velocity 1 60 double
0.455872 0.455872 0.455872 0.455872 0.455872 0.455872 0.455872 0.455872 0.455872 
0.455872 0.455872 0.455872 0.455872 0.455872 0.455872 0.455872 0.455872 0.455872 
0.455872 0.455872 0.455872 0.455872 0.455872 0.455872 0.455872 0.455872 0.455872 
0.455872 0.455872 0.455872 0.455872 0.455872 0.455872 0.455872 0.455872 0.455872 
0.455872 0.455872 0.455872 0.455872 0.455872 0.455872 0.455872 0.455872 0.455872 
0.455872 0.455872 0.455872 0.455872 0.455872 0.455872 0.455872 0.455872 0.455872 
0.455872 0.455872 0.455872 0.455872 0.455872 0.455872 
