# vtk DataFile Version 3.0
vtk output
ASCII
DATASET POLYDATA
POINTS 22 float
127.067 474.96 52.871 127.533 474.522 51.9416 127.991 474.114 50.9584 
128.428 473.707 50.0189 128.841 473.361 49.0402 129.184 472.98 48.0781 
129.56 472.528 47.1364 129.943 472.24 46.1453 130.203 471.903 45.1068 
130.683 471.173 44.1735 131.026 470.556 43.1787 131.442 470.048 42.1901 
132.132 469.647 41.394 122.964 478.918 62.2918 122.552 479.236 63.3 
122.214 479.594 64.256 121.79 479.954 65.2725 121.395 480.322 66.286 
121.05 480.707 67.276 120.686 481.088 68.2687 120.279 481.433 69.1846 
119.898 481.813 70.1851 
POINT_DATA 22
FIELD FieldData 3
Flow%20direction 3 22 double
0.43222 -0.389161 -0.813474 0.382295 -0.358346 -0.851727 0.399572 -0.374828 -0.836568 
0.395467 -0.327807 -0.857991 0.324539 -0.301918 -0.896393 0.325832 -0.417769 -0.848117 
0.356766 -0.329541 -0.87414 0.289002 -0.236211 -0.92773 0.266147 -0.432434 -0.861491 
0.419006 -0.609562 -0.672955 0.250034 -0.428876 -0.868071 0.389736 -0.395654 -0.831603 
0.903334 -0.210476 -0.373749 0.463939 -0.162692 -0.870799 0.303893 -0.320945 -0.897019 
0.339213 -0.338007 -0.877887 0.373178 -0.29435 -0.879827 0.316506 -0.343625 -0.884164 
0.306103 -0.3413 -0.888716 0.366304 -0.332209 -0.869171 0.372982 -0.326348 -0.868551 
0.30578 -0.334611 -0.891366 
FLow%20direction%20uncertainty 1 22 double
1 1 1 1 1 1 1 1 1 
1 1 1 1 0.874715 0.874715 0.874715 0.874715 0.874715 
0.874715 0.874715 0.874715 0.874715 
Vessel%20velocity 1 22 double
0.651306 0.651306 0.651306 0.651306 0.651306 0.651306 0.651306 0.651306 0.651306 
0.651306 0.651306 0.651306 0.651306 2.49794 2.49794 2.49794 2.49794 2.49794 
2.49794 2.49794 2.49794 2.49794 
