# vtk DataFile Version 3.0
vtk output
ASCII
DATASET POLYDATA
POINTS 21 float
132.765 468.751 37.7601 132.276 469.296 38.6533 131.933 469.801 39.6097 
131.638 470.333 40.6403 131.333 470.8 41.6357 130.954 471.193 42.5708 
130.496 471.571 43.5267 130.109 471.956 44.4936 129.711 472.245 45.4238 
129.3 472.536 46.4204 128.922 472.913 47.4049 128.501 473.257 48.3168 
128.162 473.604 49.2616 127.805 474.004 50.2506 127.434 474.368 51.1918 
127.051 474.664 52.1181 126.712 475.007 53.0996 126.295 475.385 54.0377 
125.916 475.762 54.9702 125.557 476.185 55.916 125.146 476.724 56.8843 

POINT_DATA 21
FIELD FieldData 3
Flow%20direction 3 21 double
0.386582 -0.503984 -0.772369 0.419177 -0.450084 -0.788489 0.233002 -0.456385 -0.858733 
0.251709 -0.42226 -0.870826 0.278923 -0.398976 -0.87351 0.417767 -0.325907 -0.848089 
0.359606 -0.347216 -0.866097 0.378521 -0.308125 -0.872801 0.354525 -0.243998 -0.90265 
0.360553 -0.302367 -0.88237 0.356959 -0.364498 -0.860071 0.347026 -0.278554 -0.895534 
0.313356 -0.340411 -0.886526 0.327225 -0.385271 -0.862839 0.38321 -0.268712 -0.88371 
0.322438 -0.306341 -0.89565 0.319557 -0.3445 -0.882725 0.403866 -0.322336 -0.856149 
0.323102 -0.37128 -0.870492 0.336762 -0.41731 -0.844064 0.354159 -0.481261 -0.801847 

FLow%20direction%20uncertainty 1 21 double
1 1 1 1 1 1 1 1 1 
1 1 1 1 1 1 1 1 1 
1 1 1 
Vessel%20velocity 1 21 double
0.577387 0.577387 0.577387 0.577387 0.577387 0.577387 0.577387 0.577387 0.577387 
0.577387 0.577387 0.577387 0.577387 0.577387 0.577387 0.577387 0.577387 0.577387 
0.577387 0.577387 0.577387 
