# vtk DataFile Version 3.0
vtk output
ASCII
DATASET POLYDATA
POINTS 24 float
144.968 456.864 3.42982 144.534 457.211 4.33635 144.19 457.66 5.33405 
143.825 457.979 6.32252 143.344 458.299 7.20836 142.852 458.597 8.14872 
142.396 458.87 9.04243 141.956 459.213 9.98947 141.569 459.568 10.9658 
141.126 459.88 11.9507 140.777 460.195 12.9159 140.36 460.577 13.8577 
139.961 460.979 14.8118 139.566 461.34 15.7586 139.165 461.633 16.6885 
138.798 461.993 17.6444 138.417 462.41 18.6261 138.054 462.78 19.6079 
137.693 463.112 20.5429 137.315 463.592 21.4955 136.943 463.996 22.4467 
136.518 464.349 23.4101 136.121 464.696 24.3528 135.707 464.993 25.2662 

POINT_DATA 24
FIELD FieldData 3
Flow%20direction 3 24 double
0.451977 -0.264606 -0.85188 0.332495 -0.397271 -0.85535 0.301408 -0.372209 -0.877846 
0.37722 -0.286305 -0.880758 0.50035 -0.262665 -0.825019 0.427352 -0.276938 -0.860625 
0.421848 -0.289447 -0.859223 0.35828 -0.328568 -0.873887 0.388867 -0.279027 -0.878024 
0.344985 -0.288512 -0.893166 0.338937 -0.337902 -0.878034 0.397802 -0.353824 -0.8465 
0.342959 -0.352033 -0.870892 0.392759 -0.308633 -0.866306 0.343629 -0.269604 -0.899574 
0.316516 -0.407453 -0.856621 0.350502 -0.338104 -0.873404 0.317277 -0.292406 -0.902127 
0.326245 -0.387946 -0.862011 0.336994 -0.41784 -0.843709 0.374606 -0.319051 -0.870561 
0.33705 -0.337002 -0.879106 0.409412 -0.309395 -0.858287 0.398958 -0.233561 -0.886725 

FLow%20direction%20uncertainty 1 24 double
1 1 1 1 1 1 1 1 1 
1 1 1 1 1 1 1 1 1 
1 1 1 1 1 1 
Vessel%20velocity 1 24 double
0.625017 0.625017 0.625017 0.625017 0.625017 0.625017 0.625017 0.625017 0.625017 
0.625017 0.625017 0.625017 0.625017 0.625017 0.625017 0.625017 0.625017 0.625017 
0.625017 0.625017 0.625017 0.625017 0.625017 0.625017 
