# vtk DataFile Version 3.0
vtk output
ASCII
DATASET POLYDATA
POINTS 37 float
122.016 477.307 57.2025 122.394 476.943 56.2476 122.753 476.561 55.2869 
123.041 476.145 54.306 123.364 475.703 53.321 123.681 475.315 52.3552 
124.045 474.878 51.3531 124.413 474.487 50.3641 124.779 474.093 49.3363 
125.11 473.776 48.3876 125.479 473.499 47.4497 125.872 473.135 46.4751 
126.251 472.813 45.4868 126.562 472.447 44.5103 126.928 472.081 43.5518 
127.282 471.651 42.5786 127.613 471.238 41.5493 127.991 470.893 40.5676 
128.384 470.447 39.5708 128.761 470.058 38.5674 129.161 469.682 37.567 
129.591 469.25 36.5951 130.015 468.853 35.6565 130.474 468.561 34.6845 
130.877 468.225 33.7201 131.258 467.824 32.7661 131.611 467.461 31.8003 
132.002 467.112 30.792 132.406 466.765 29.8575 132.817 466.377 28.9174 
133.178 466.017 27.9675 133.581 465.639 27.052 134.053 465.34 26.0724 
134.532 465.12 25.1599 135.088 464.968 24.3025 135.775 464.812 23.4817 
136.513 464.705 22.7445 
POINT_DATA 37
FIELD FieldData 3
Flow%20direction 3 37 double
0.364199 -0.318606 -0.875128 0.34298 -0.338788 -0.87612 0.28299 -0.368078 -0.885684 
0.266003 -0.381553 -0.885246 0.3003 -0.389831 -0.870547 0.280189 -0.354745 -0.891992 
0.347485 -0.360249 -0.865722 0.320654 -0.353659 -0.878696 0.300155 -0.323014 -0.897535 
0.349461 -0.249213 -0.9032 0.350706 -0.320488 -0.879939 0.351531 -0.301157 -0.886415 
0.314694 -0.326662 -0.891212 0.305218 -0.324133 -0.895421 0.346705 -0.371462 -0.861285 
0.283793 -0.371494 -0.883999 0.300928 -0.343753 -0.889537 0.369038 -0.29817 -0.880287 
0.309206 -0.40873 -0.85868 0.344737 -0.298676 -0.889915 0.356801 -0.394835 -0.84664 
0.394919 -0.331176 -0.856949 0.389872 -0.344233 -0.85411 0.396431 -0.247765 -0.883999 
0.360173 -0.347581 -0.865715 0.322312 -0.353593 -0.878116 0.333011 -0.330252 -0.883197 
0.360094 -0.289846 -0.886748 0.385198 -0.348986 -0.854302 0.34496 -0.350824 -0.870589 
0.358411 -0.337641 -0.870368 0.395715 -0.328731 -0.857523 0.430742 -0.233111 -0.871849 
0.490498 -0.174463 -0.8538 0.58243 -0.135589 -0.801493 0.698087 -0.140176 -0.702158 
0.660346 -0.0574945 -0.748758 
FLow%20direction%20uncertainty 1 37 double
1 1 1 1 1 1 1 1 1 
1 1 1 1 1 1 1 1 1 
1 1 1 1 1 1 1 1 1 
1 1 1 1 1 1 1 1 1 
1 
Vessel%20velocity 1 37 double
0.584771 0.584771 0.584771 0.584771 0.584771 0.584771 0.584771 0.584771 0.584771 
0.584771 0.584771 0.584771 0.584771 0.584771 0.584771 0.584771 0.584771 0.584771 
0.584771 0.584771 0.584771 0.584771 0.584771 0.584771 0.584771 0.584771 0.584771 
0.584771 0.584771 0.584771 0.584771 0.584771 0.584771 0.584771 0.584771 0.584771 
0.584771 
