# vtk DataFile Version 3.0
vtk output
ASCII
DATASET POLYDATA
POINTS 12 float
123.56 478.156 61.2722 122.94 478.699 62.0952 122.549 479.072 63.0694 
122.189 479.453 64.0319 121.776 479.849 65.0004 121.422 480.22 65.9586 
121.052 480.625 66.9373 120.681 480.921 67.8975 120.303 481.237 68.8368 
119.87 481.613 69.8138 119.521 481.991 70.8093 119.251 482.263 71.8431 

POINT_DATA 12
FIELD FieldData 3
Flow%20direction 3 12 double
0.683456 -0.52824 -0.503837 0.387153 -0.3522 -0.852096 0.298247 -0.367977 -0.880705 
0.388024 -0.345792 -0.854322 0.376135 -0.310746 -0.872903 0.289457 -0.382487 -0.87745 
0.380435 -0.293811 -0.876895 0.378848 -0.310539 -0.871803 0.389141 -0.345037 -0.854119 
0.365529 -0.325823 -0.87191 0.262637 -0.300495 -0.91691 0.236512 -0.22348 -0.945579 

FLow%20direction%20uncertainty 1 12 double
0.94419 0.94419 0.94419 0.94419 0.94419 0.94419 0.94419 0.94419 0.94419 
0.94419 0.94419 0.94419 
Vessel%20velocity 1 12 double
0.314158 0.314158 0.314158 0.314158 0.314158 0.314158 0.314158 0.314158 0.314158 
0.314158 0.314158 0.314158 
