# vtk DataFile Version 3.0
vtk output
ASCII
DATASET POLYDATA
POINTS 13 float
124.831 476.911 56.9753 124.378 477.323 57.9253 123.836 477.604 58.8445 
123.458 477.885 59.8035 123.172 478.206 60.7717 122.862 478.603 61.7348 
122.526 479.064 62.6893 122.148 479.454 63.6572 121.707 479.854 64.6272 
121.308 480.224 65.5766 120.91 480.548 66.5126 120.592 480.855 67.5303 
120.261 481.087 68.5408 
POINT_DATA 13
FIELD FieldData 3
Flow%20direction 3 13 double
0.321542 -0.423783 -0.84677 0.510495 -0.273895 -0.815093 0.386969 -0.265609 -0.88301 
0.297659 -0.274878 -0.914244 0.277915 -0.345895 -0.89617 0.292824 -0.387896 -0.873951 
0.297105 -0.387891 -0.872507 0.39111 -0.344837 -0.8533 0.363829 -0.356284 -0.860633 
0.383236 -0.301501 -0.873056 0.341971 -0.32806 -0.880587 0.290296 -0.209625 -0.933695 
0.253238 -0.210771 -0.944164 
FLow%20direction%20uncertainty 1 13 double
1 1 1 1 1 1 1 1 1 
1 1 1 1 
Vessel%20velocity 1 13 double
0.465045 0.465045 0.465045 0.465045 0.465045 0.465045 0.465045 0.465045 0.465045 
0.465045 0.465045 0.465045 0.465045 
