# vtk DataFile Version 3.0
vtk output
ASCII
DATASET POLYDATA
POINTS 23 float
120.964 481.052 69.7866 120.678 481.086 68.7564 120.979 480.812 67.7513 
121.384 480.418 66.8122 121.803 480.024 65.9021 122.241 479.629 64.9516 
122.673 479.214 63.9887 123.075 478.876 63.0193 123.397 478.556 62.0343 
123.805 478.174 61.0269 124.224 477.77 60.034 124.589 477.327 59.058 
125.006 476.883 58.0758 125.397 476.536 57.1514 125.795 476.17 56.184 
126.178 475.85 55.2515 126.571 475.5 54.2741 126.966 475.159 53.2672 
127.289 474.817 52.3151 127.639 474.401 51.3463 127.986 474.001 50.3632 
128.393 473.578 49.4313 128.818 473.135 48.5033 
POINT_DATA 23
FIELD FieldData 3
Flow%20direction 3 23 double
-0.368408 0.0852887 -0.925744 -0.0184079 -0.0828889 -0.996389 0.364723 -0.350604 -0.862586 
0.401526 -0.350295 -0.84621 0.365559 -0.372576 -0.852968 0.38943 -0.365497 -0.845433 
0.411748 -0.314361 -0.85536 0.305782 -0.300148 -0.903553 0.309114 -0.317729 -0.89638 
0.390319 -0.326701 -0.860766 0.329335 -0.380507 -0.864149 0.323961 -0.390206 -0.861851 
0.394695 -0.349261 -0.849843 0.329927 -0.327023 -0.885553 0.406825 -0.317438 -0.856578 
0.323084 -0.309315 -0.894394 0.378423 -0.299403 -0.875873 0.313956 -0.315581 -0.895455 
0.307181 -0.344136 -0.887249 0.316101 -0.379564 -0.869489 0.306605 -0.328918 -0.8932 
0.446767 -0.420749 -0.789538 0.332212 -0.432092 -0.83841 
FLow%20direction%20uncertainty 1 23 double
0.934816 0.934816 0.934816 0.934816 0.934816 0.934816 0.934816 0.934816 0.934816 
0.934816 0.934816 0.934816 0.934816 0.934816 0.934816 0.934816 0.934816 0.934816 
0.934816 0.934816 0.934816 0.934816 0.934816 
Vessel%20velocity 1 23 double
0.402994 0.402994 0.402994 0.402994 0.402994 0.402994 0.402994 0.402994 0.402994 
0.402994 0.402994 0.402994 0.402994 0.402994 0.402994 0.402994 0.402994 0.402994 
0.402994 0.402994 0.402994 0.402994 0.402994 
