# vtk DataFile Version 3.0
vtk output
ASCII
DATASET POLYDATA
POINTS 19 float
133.252 468.356 37.1437 132.789 468.859 38.0764 132.38 469.333 38.9896 
132.029 469.675 39.9553 131.61 470.013 40.9165 131.23 470.455 41.9071 
130.841 470.841 42.8797 130.429 471.214 43.7959 130.02 471.544 44.7618 
129.664 471.88 45.7167 129.315 472.255 46.7143 128.961 472.651 47.6916 
128.623 472.999 48.6557 128.181 473.384 49.594 127.835 473.749 50.54 
127.484 474.148 51.5002 127.067 474.583 52.4102 126.662 474.977 53.3637 
126.242 475.37 54.2966 
POINT_DATA 19
FIELD FieldData 3
Flow%20direction 3 19 double
0.364319 -0.46213 -0.808522 0.41855 -0.425436 -0.802384 0.329005 -0.394628 -0.857919 
0.369367 -0.298588 -0.880008 0.333126 -0.33298 -0.882129 0.333161 -0.4056 -0.851171 
0.385538 -0.319094 -0.86576 0.354452 -0.341597 -0.870446 0.376367 -0.284388 -0.881743 
0.314493 -0.342765 -0.885216 0.315267 -0.348265 -0.88279 0.305367 -0.314684 -0.898735 
0.348035 -0.355095 -0.867629 0.378605 -0.372781 -0.847167 0.312387 -0.338611 -0.887557 
0.338457 -0.412177 -0.845906 0.416296 -0.348633 -0.839734 0.33277 -0.379157 -0.863426 
0.423278 -0.378514 -0.823142 
FLow%20direction%20uncertainty 1 19 double
1 1 1 1 1 1 1 1 1 
1 1 1 1 1 1 1 1 1 
1 
Vessel%20velocity 1 19 double
0.53408 0.53408 0.53408 0.53408 0.53408 0.53408 0.53408 0.53408 0.53408 
0.53408 0.53408 0.53408 0.53408 0.53408 0.53408 0.53408 0.53408 0.53408 
0.53408 
