# vtk DataFile Version 3.0
vtk output
ASCII
DATASET POLYDATA
POINTS 16 float
124.592 477.102 56.864 124.236 477.436 57.8299 123.942 477.738 58.8176 
123.544 478.078 59.8091 123.163 478.423 60.7744 122.782 478.798 61.726 
122.407 479.149 62.7051 122.033 479.528 63.6835 121.706 479.849 64.6501 
121.337 480.186 65.5889 120.955 480.538 66.5333 120.571 480.881 67.5282 
120.19 481.257 68.4914 119.821 481.603 69.4445 119.543 481.922 70.447 
119.245 482.153 71.4118 
POINT_DATA 16
FIELD FieldData 3
Flow%20direction 3 16 double
0.329539 -0.315061 -0.890023 0.320315 -0.294489 -0.900375 0.250824 -0.279621 -0.926768 
0.42328 -0.299864 -0.854936 0.318193 -0.340771 -0.884663 0.321712 -0.311863 -0.894004 
0.332528 -0.367915 -0.868369 0.339463 -0.299089 -0.891802 0.327212 -0.299826 -0.896123 
0.350048 -0.335844 -0.874457 0.350453 -0.299489 -0.887406 0.336905 -0.318387 -0.886073 
0.344499 -0.377869 -0.859381 0.289663 -0.261621 -0.920679 0.262739 -0.29401 -0.918981 
0.285198 -0.210788 -0.935003 
FLow%20direction%20uncertainty 1 16 double
1 1 1 1 1 1 1 1 1 
1 1 1 1 1 1 1 
Vessel%20velocity 1 16 double
0.557145 0.557145 0.557145 0.557145 0.557145 0.557145 0.557145 0.557145 0.557145 
0.557145 0.557145 0.557145 0.557145 0.557145 0.557145 0.557145 
