# vtk DataFile Version 3.0
vtk output
ASCII
DATASET POLYDATA
POINTS 176 float
-47.6525 -56.779 33.6209 -46.5825 -57.4909 33.4747 -45.5853 -58.0163 33.1465 
-44.6975 -58.0118 32.4915 -43.9034 -57.6402 31.7737 -43.025 -56.8222 31.1615 
-41.9775 -55.8533 31.1209 -40.9788 -55.1504 31.3864 -16.5052 -37.7911 7.8275 
-16.9847 -37.5942 8.83609 -20.8895 -38.2985 12.1861 -21.9115 -38.6286 12.3628 
-22.9611 -38.9813 12.4778 -42.6397 -28.1667 18.4998 -42.9397 -31.9457 18.2193 
-43.7323 -33.0059 17.5725 -46.0341 -32.938 17.4276 -46.8668 -32.5523 18.0034 
-47.4905 -32.4932 18.8155 -48.6865 -31.9508 21.2951 -48.7615 -31.7593 22.3229 
-46.8732 -32.9389 17.7008 -44.8207 -36.7386 14.4993 -44.2974 -25.4367 20.3229 
-45.314 -25.3669 20.4383 -48.2572 -25.9098 21.0791 -24.1502 -42.0744 7.32277 
-25.1658 -42.2958 7.38976 -25.9995 -42.1482 8.00639 -32.3134 -43.2478 10.4648 
-31.3213 -43.2522 10.8666 -30.4299 -43.0877 11.4336 -29.5024 -42.6296 11.9915 
-30.1451 -48.0434 9.42198 -29.1585 -47.9597 9.77917 -28.0822 -47.8805 9.84947 
-27.208 -48.1209 9.27878 -41.4282 -43.707 11.6518 -40.6172 -43.8454 10.955 
-39.7573 -43.8882 10.3761 -38.9077 -43.7985 9.81294 -37.9943 -43.7431 9.36777 
-36.3047 -48.7462 9.16676 -38.3225 -48.5592 10.0399 -39.2933 -48.4403 10.5768 
-40.1095 -48.2406 11.2283 -40.8763 -47.9505 11.8872 -41.7478 -47.7972 12.4812 
-42.5494 -47.69 13.1172 -43.3424 -47.5674 13.7563 -44.1203 -47.3141 14.4696 
-44.8382 -47.0657 15.2107 -45.5014 -46.9131 15.9992 -46.1858 -46.5426 16.8098 
-46.9039 -46.2126 17.5119 -35.8471 -51.217 8.89212 -34.9218 -51.9047 8.3739 
-34.0366 -52.3919 7.81198 -33.1949 -52.6448 7.14371 -39.5926 -53.8759 7.74573 
-39.3827 -51.7964 8.46335 -39.6296 -51.4396 8.70427 -37.4439 -51.3964 7.41199 
-36.7125 -53.9384 6.68961 -29.9494 -53.003 12.3661 -48.8888 -30.8301 24.0816 
-49.8076 -33.1926 24.4945 -48.6534 -35.3792 24.2162 -47.6637 -36.0685 23.9228 
-47.5126 -32.2251 25.8943 -45.1699 -35.1648 24.2142 -46.2542 -32.2149 28.5948 
-45.902 -31.4416 29.6267 -45.2877 -30.8796 30.5248 -44.6966 -30.059 31.3491 
-43.7317 -28.7852 31.6585 -56.9589 -37.5386 33.0231 -56.6197 -37.1874 32.0637 
-56.2041 -36.7259 31.0919 -55.6755 -36.3001 30.1473 -55.0468 -35.9485 29.3593 
-44.3676 -42.1738 15.4794 -45.4084 -38.9157 23.9977 -45.6935 -37.1997 26.7849 
-45.358 -37.3494 27.7648 -45.0972 -37.329 28.8026 -44.8912 -37.1819 29.8178 
-44.6297 -36.9281 30.9257 -44.3982 -36.739 32.0386 -44.1214 -36.701 33.0246 
-43.7222 -36.6943 33.9932 -43.1242 -36.703 34.8956 -42.4118 -36.723 35.6488 
-41.505 -36.7327 36.2223 -40.509 -36.8369 36.4398 -39.4832 -37.0571 36.4429 
-38.5664 -37.7726 35.9138 -38.1059 -38.8384 35.0131 -38.445 -39.5707 33.9978 
-38.9984 -39.9231 33.0877 -39.5807 -40.1236 32.2323 -40.1025 -40.1373 31.2857 
-40.4959 -40.1329 30.3287 -40.8776 -40.2378 29.2919 -41.4118 -40.3135 28.3142 
-41.9457 -40.4111 27.4159 -42.4866 -40.4263 26.4626 -43.0373 -40.3673 25.5418 
-43.5618 -40.2016 24.5588 -47.6273 -44.2361 22.0031 -48.6434 -44.77 22.0884 
-49.6231 -45.2982 22.483 -50.4902 -45.706 22.9917 -51.2384 -46.1742 23.7698 
-50.8921 -43.6113 23.2022 -52.8964 -46.2261 25.8214 -52.4115 -46.4098 27.7356 
-51.8811 -46.931 28.6181 -51.867 -46.3331 29.6827 -51.8599 -45.3973 30.7546 
-51.7025 -44.7533 31.7832 -51.5083 -44.3341 32.8324 -51.445 -44.0956 33.8414 
-51.3087 -43.7652 36.973 -52.6646 -44.9855 36.8143 -55.0165 -44.9641 27.0304 
-50.5455 -48.6786 20.0599 -41.7162 -54.1807 9.76487 -42.7577 -55.5421 9.79456 
-47.8983 -54.9448 14.4489 -48.7236 -54.6155 15.2098 -49.4483 -54.6117 15.9788 
-47.8739 -54.6279 14.3321 -48.3261 -54.9463 15.2549 -47.2014 -49.2501 20.8361 
-48.1905 -49.4077 20.5923 -40.906 -56.1 10.229 -40.0423 -57.149 9.64361 
-40.7857 -56.0953 10.3015 -39.508 -57.7018 9.17828 -40.1111 -58.4628 9.52154 
-48.4123 -55.5143 17.4352 -48.8737 -54.6902 18.3482 -46.276 -58.4018 15.8357 
-41.8377 -46.3684 29.7907 -41.2295 -46.2808 30.0731 -40.3242 -46.2912 30.5462 
-54.6101 -36.0563 36.0144 -56.5642 -36.8977 35.7975 -54.4223 -36.3147 37.3382 
-48.347 -43.1336 34.5632 -47.9285 -43.307 35.5553 -53.6944 -45.0508 34.1852 
-54.1348 -45.603 33.2427 -37.9511 -55.3264 20.1235 -40.6161 -52.3293 21.7573 
-39.9777 -52.5753 22.5427 -39.3346 -52.8067 23.3972 -39.0861 -52.6511 24.3791 
-38.7757 -52.6947 27.5651 -38.2585 -54.8332 26.7066 -39.5313 -54.6775 26.954 
-40.6206 -54.904 26.8915 -43.0796 -54.3714 27.5529 -45.3434 -54.9063 28.6521 
-45.3092 -54.2462 28.4839 -46.2881 -54.1662 28.8552 -47.2847 -53.8335 29.3122 
-43.7446 -55.5131 25.4406 -43.4133 -55.7598 25.4022 -44.4127 -56.3455 25.7952 
-35.2428 -54.9049 38.307 -34.4506 -54.9449 37.6523 -34.1833 -54.751 36.6134 
-34.6281 -54.438 35.6093 -35.2192 -54.2114 34.7602 
POINT_DATA 176
FIELD FieldData 3
Flow%20direction 3 176 double
-0.815996 0.569715 0.0978468 -0.83047 0.535541 0.153348 -0.848287 0.257211 0.462873 
-0.731444 -0.193657 0.653824 -0.654254 -0.496264 0.570678 -0.689442 -0.654434 0.310461 
-0.750113 -0.636269 -0.180253 -0.841808 -0.481192 -0.24457 -0.394324 0.186381 0.899873 
-0.452971 0.156455 0.87769 -0.912173 -0.340338 0.228278 -0.946403 -0.305869 0.103759 
-0.94361 -0.287026 0.16497 -0.53282 0.34213 -0.773983 0.542996 0.753531 0.370603 
0.449176 0.724855 0.522328 -0.803439 0.449379 0.39057 -0.697381 0.189506 0.691193 
-0.537873 -0.020482 0.842777 -0.172891 0.252659 0.951983 -0.0169524 0.11554 0.993158 
-0.633069 -0.0279294 0.773591 0.36104 0.655149 0.663649 -0.967856 0.247093 0.0469053 
-0.993496 -0.0775236 0.083396 -0.885501 -0.252412 0.390098 -0.941096 -0.233233 -0.244829 
-0.883274 -0.0939738 0.459343 -0.768149 0.430802 0.473664 -0.959165 0.106842 -0.261891 
-0.877068 -0.0908644 -0.471695 -0.794034 -0.224844 -0.564761 -0.775087 -0.532389 -0.340296 
-0.926671 -0.0879117 -0.365448 -0.956671 -0.0836618 -0.278894 -0.964487 0.0142203 0.263749 
-0.732307 0.374124 0.568997 -0.713921 0.145235 0.684999 -0.797546 0.120708 0.591059 
-0.823631 -0.0696192 0.562837 -0.867014 -0.0503693 0.495731 -0.917912 -0.0924197 0.38587 
-0.936553 0.148497 0.317518 -0.902125 0.081248 0.423756 -0.831857 0.136017 0.538064 
-0.710957 0.248713 0.657785 -0.785755 0.25348 0.564214 -0.800738 0.0863364 0.59276 
-0.763643 0.128617 0.632698 -0.776254 0.0981459 0.622734 -0.678629 0.313857 0.664046 
-0.659937 0.135342 0.73903 -0.616009 0.218592 0.756803 -0.619241 0.399815 0.675787 
-0.73105 0.1894 0.655511 -0.627065 0.63875 0.445857 -0.787508 0.475232 0.39241 
-0.759675 0.290055 0.582033 -0.771928 0.21162 0.599453 -0.329746 -0.583875 -0.741861 
-0.30988 -0.809102 -0.499328 -0.0563965 -0.842405 -0.535885 0.240285 -0.956212 -0.167096 
-0.412718 0.908844 -0.0605454 0.803637 -0.55492 -0.215015 -0.0705596 -0.980813 0.181736 
-0.444503 -0.882287 0.154874 -0.811187 0.517429 0.272477 -0.786499 0.586258 0.194218 
-0.6755 0.711929 0.191982 -0.334837 0.564521 0.754454 0.111704 0.600766 0.791583 
0.450286 0.471696 0.75812 0.519128 0.500666 0.692704 0.441774 0.71798 0.537904 
0.396618 0.844406 -0.360101 -0.32956 -0.250925 0.91018 -0.324971 -0.382521 0.864911 
-0.385109 -0.391299 0.835809 -0.556588 -0.334482 0.760481 -0.575975 -0.326474 0.749445 
-0.296295 0.564369 0.770517 0.111645 -0.861987 -0.494483 -0.328891 0.167563 -0.929383 
-0.298338 0.0784861 -0.951228 -0.18832 -0.0854902 -0.97838 -0.224938 -0.203169 -0.952956 
-0.211274 -0.208463 -0.954938 -0.208248 -0.101196 -0.972827 -0.335486 0.00614881 -0.942025 
-0.438492 -0.0170149 -0.898574 -0.642268 0.029959 -0.765894 -0.736415 -0.00547614 -0.676508 
-0.938875 0.0663402 -0.337805 -0.984866 0.130147 -0.11446 -0.929674 0.332247 0.159115 
-0.475467 0.691306 0.544084 -0.0648477 0.711485 0.699703 0.453511 0.38652 0.803075 
0.529595 0.256462 0.808552 0.547964 0.0995056 0.830562 0.418925 -0.0329984 0.907421 
0.344596 0.0487264 0.937485 0.407506 0.0848371 0.909253 0.507821 0.0857626 0.857183 
0.509186 0.0738336 0.857484 0.480316 -0.043113 0.876035 0.514832 -0.086102 0.852956 
0.406608 -0.191761 0.893251 -0.87652 -0.478 -0.056826 -0.839923 -0.485411 0.242704 
-0.832107 -0.385045 0.399172 -0.733953 -0.400794 0.54834 -0.543751 -0.314479 0.778099 
-0.0811039 -0.954771 0.286068 -0.819671 0.159388 0.550214 0.538123 -0.401896 0.74088 
0.25242 -0.136024 0.958009 -0.0231224 0.635789 0.771517 0.0297362 0.644562 0.763974 
0.240761 0.44007 0.865085 0.0923274 0.284576 0.954197 0.0256417 0.186444 0.982131 
0.0472142 -0.15766 0.986364 0.632016 0.362243 0.68508 -0.59299 0.692103 0.41153 
-0.529144 -0.806638 0.263327 -0.539987 -0.820817 -0.186211 -0.690035 -0.537959 0.484202 
0.718754 -0.321626 -0.6164 0.699404 -0.177876 -0.692238 0.66086 0.120934 -0.740702 
0.673981 -0.238545 -0.699175 0.0332914 0.710129 -0.703284 -0.969663 0.0284804 -0.242779 
-0.89173 -0.399398 -0.212836 0.583261 -0.719822 -0.376381 0.585154 -0.682121 -0.438527 
0.740035 -0.643837 -0.194479 -0.481263 0.825217 0.295641 0.757805 -0.371025 -0.536723 
-0.368394 0.645309 0.669225 -0.35768 0.616927 0.701046 0.586399 -0.607648 -0.535631 
-0.504626 -0.207264 -0.83809 -0.754511 -0.309953 -0.578484 -0.856485 0.498239 -0.134872 
0.631782 0.40208 0.662709 0.859007 0.379589 -0.34354 0.348709 0.262833 0.899623 
0.369309 0.0463048 0.928153 0.409594 -0.407626 0.816134 0.45846 0.505918 0.730658 
0.28396 0.479468 0.830347 -0.654912 0.753789 -0.0537788 0.614604 -0.200577 0.762909 
0.608042 -0.256567 0.751305 0.525675 -0.0930153 0.845585 0.13643 0.0323061 0.990123 
-0.0986067 0.280731 0.954708 0.0422379 -0.918364 -0.393476 -0.991604 -0.117316 0.0543895 
-0.963536 -0.245849 -0.105623 -0.872242 0.079748 0.482528 -0.868564 0.0926629 0.486837 
-0.932217 0.0535915 0.35791 -0.921925 0.132423 0.36403 -0.78895 0.448785 0.419703 
-0.649142 -0.415321 0.637278 -0.805957 -0.33113 0.490699 -0.805032 -0.551973 0.217371 
-0.905367 0.251805 0.341913 -0.593854 -0.0778018 0.800802 0.168503 -0.251661 0.953034 
0.508807 -0.269029 0.817765 0.59331 -0.17018 0.786779 
FLow%20direction%20uncertainty 1 176 double
1 1 1 1 1 1 1 1 0.964352 
0.964352 1 1 1 0.714266 0.900932 0.900932 1 1 
1 1 1 1 0.88379 1 1 1 0.841837 
0.841837 0.841837 0.980097 0.980097 0.980097 0.980097 0.825525 0.825525 0.825525 
0.825525 1 1 1 1 1 1 1 1 
1 1 1 1 1 1 1 1 1 
1 1 1 1 1 0.467126 0.977933 0.968729 0.680945 
0.680945 1 1 1 1 1 1 1 1 
1 1 1 1 1 1 1 1 1 
1 1 0.881181 0.881181 0.881181 0.881181 0.881181 0.881181 0.881181 
0.881181 0.881181 0.881181 0.881181 0.881181 0.881181 0.881181 0.881181 0.881181 
0.881181 0.881181 0.881181 0.881181 0.881181 0.881181 0.881181 0.881181 0.881181 
0.881181 1 1 1 1 1 1 1 0.71146 
0.71146 0.71146 0.71146 0.71146 0.71146 0.71146 1 1 1 
1 0.931942 0.931942 1 1 1 1 1 1 
1 0.957023 0.957023 0.749966 0.000547285 0.861722 0.28112 0.28112 1 
1 0.503366 0.503366 1 1 1 1 1 1 
1 1 1 1 1 1 1 1 1 
1 1 1 1 1 1 1 1 1 
0.784828 0.784828 0.784828 0.784828 0.784828 
Vessel%20velocity 1 176 double
0.082484 0.082484 0.082484 0.082484 0.082484 0.082484 0.082484 0.082484 0.146338 
0.146338 0.119538 0.119538 0.119538 0.322488 0.0685785 0.0685785 0.0589012 0.0589012 
0.0589012 0.0920561 0.0920561 0.0548402 0.0403821 0.0526613 0.0526613 0.0548614 0.0967125 
0.0967125 0.0967125 0.105965 0.105965 0.105965 0.105965 0.0983045 0.0983045 0.0983045 
0.0983045 0.0949938 0.0949938 0.0949938 0.0949938 0.0949938 0.0861293 0.0873152 0.0873152 
0.0873152 0.0873152 0.0873152 0.0873152 0.0873152 0.0873152 0.0873152 0.0873152 0.0873152 
0.0873152 0.130196 0.130196 0.130196 0.130196 0.0770262 0.102165 0.159709 0.0493334 
0.0493334 0.111774 0.0465473 0.0465473 0.132799 0.132799 0.175796 0.195063 0.116344 
0.116344 0.116344 0.116344 0.116344 0.101969 0.101969 0.101969 0.101969 0.101969 
0.221822 0.104137 0.0890161 0.0890161 0.0890161 0.0890161 0.0890161 0.0890161 0.0890161 
0.0890161 0.0890161 0.0890161 0.0890161 0.0890161 0.0890161 0.0890161 0.0890161 0.0890161 
0.0890161 0.0890161 0.0890161 0.0890161 0.0890161 0.0890161 0.0890161 0.0890161 0.0890161 
0.0890161 0.0551363 0.0551363 0.0551363 0.0551363 0.0551363 0.0615384 0.08096 0.0575793 
0.0575793 0.0575793 0.0575793 0.0575793 0.0575793 0.0575793 0.0551661 0.0188148 0.244097 
0.0440953 0.0506255 0.0506255 0.0121718 0.0121718 0.0121718 0.00922393 0.00922393 0.0641582 
0.0641582 0.0736642 0.0736642 0.0445943 0.00463028 0.00747287 0.0143449 0.0143449 0.0746828 
0.0101809 0.00382748 0.00382748 0.045468 0.0487699 0.0732357 0.0490639 0.0490639 0.0381874 
0.0381874 0.0564439 0.0572125 0.0572125 0.0572125 0.0572125 0.217688 0.217688 0.0290422 
0.0290422 0.0342166 0.0222936 0.0231605 0.0231605 0.0231605 0.0164466 0.0151325 0.0151325 
0.0580286 0.0580286 0.0580286 0.0580286 0.0580286 
