# vtk DataFile Version 3.0
vtk output
ASCII
DATASET POLYDATA
POINTS 17 float
130.892 471.062 44.4163 130.42 471.578 45.3288 129.854 472.187 46.2203 
129.427 472.57 47.1671 129.011 472.991 48.1126 128.619 473.374 49.1173 
128.294 473.738 50.0855 127.901 474.099 51.0508 127.511 474.501 52.0341 
127.158 474.913 53.0417 126.737 475.293 53.9601 126.309 475.718 54.8848 
121.235 480.398 66.6831 121.614 480.046 65.7111 122.001 479.705 64.7286 
122.41 479.302 63.7275 122.804 478.878 62.729 
POINT_DATA 17
FIELD FieldData 3
Flow%20direction 3 17 double
0.356051 -0.422892 -0.833301 0.458863 -0.504349 -0.731489 0.446632 -0.416192 -0.792025 
0.325507 -0.344453 -0.880567 0.419966 -0.357136 -0.834316 0.298618 -0.343047 -0.890588 
0.317201 -0.330635 -0.888855 0.374917 -0.328301 -0.866981 0.309784 -0.363633 -0.878524 
0.337764 -0.37824 -0.861888 0.376766 -0.317665 -0.870136 0.432454 -0.525656 -0.732577 
0.377548 -0.318094 -0.86964 0.315294 -0.31175 -0.896327 0.372653 -0.318165 -0.871723 
0.342117 -0.356009 -0.869605 0.277164 -0.457068 -0.845144 
FLow%20direction%20uncertainty 1 17 double
0.578388 0.578388 0.578388 0.578388 0.578388 0.578388 0.578388 0.578388 0.578388 
0.578388 0.578388 0.578388 1 1 1 1 1 
Vessel%20velocity 1 17 double
0.932892 0.932892 0.932892 0.932892 0.932892 0.932892 0.932892 0.932892 0.932892 
0.932892 0.932892 0.932892 0.239608 0.239608 0.239608 0.239608 0.239608 
